# vtk DataFile Version 3.0
vtk output
ASCII
DATASET RECTILINEAR_GRID
DIMENSIONS 30 1 100
X_COORDINATES 30 double
-0.15 -0.139655 -0.12931 -0.118966 -0.108621 -0.0982759 -0.087931 -0.0775862 -0.0672414 
-0.0568966 -0.0465517 -0.0362069 -0.0258621 -0.0155172 -0.00517241 0.00517241 0.0155172 0.0258621 
0.0362069 0.0465517 0.0568966 0.0672414 0.0775862 0.087931 0.0982759 0.108621 0.118966 
0.12931 0.139655 0.15 
Y_COORDINATES 1 double
0 
Z_COORDINATES 100 double
-0.5 -0.489899 -0.479798 -0.469697 -0.459596 -0.449495 -0.439394 -0.429293 -0.419192 
-0.409091 -0.39899 -0.388889 -0.378788 -0.368687 -0.358586 -0.348485 -0.338384 -0.328283 
-0.318182 -0.308081 -0.29798 -0.287879 -0.277778 -0.267677 -0.257576 -0.247475 -0.237374 
-0.227273 -0.217172 -0.207071 -0.19697 -0.186869 -0.176768 -0.166667 -0.156566 -0.146465 
-0.136364 -0.126263 -0.116162 -0.106061 -0.0959596 -0.0858586 -0.0757576 -0.0656566 -0.0555556 
-0.0454545 -0.0353535 -0.0252525 -0.0151515 -0.00505051 0.00505051 0.0151515 0.0252525 0.0353535 
0.0454545 0.0555556 0.0656566 0.0757576 0.0858586 0.0959596 0.106061 0.116162 0.126263 
0.136364 0.146465 0.156566 0.166667 0.176768 0.186869 0.19697 0.207071 0.217172 
0.227273 0.237374 0.247475 0.257576 0.267677 0.277778 0.287879 0.29798 0.308081 
0.318182 0.328283 0.338384 0.348485 0.358586 0.368687 0.378788 0.388889 0.39899 
0.409091 0.419192 0.429293 0.439394 0.449495 0.459596 0.469697 0.479798 0.489899 
0.5 
POINT_DATA 3000
VECTORS U double
0 0 0 0 0 0 0 0 0 
3.58433e-06 6.79706e-08 -1.31659e-07 2.46088e-06 7.98032e-08 -1.55408e-07 3.45653e-06 1.04018e-07 -1.60012e-07 
5.1039e-06 1.15748e-07 -1.58033e-07 6.54084e-06 8.4132e-08 -1.07442e-07 7.11264e-06 3.96569e-08 -5.10064e-08 
7.12819e-06 -4.10059e-08 4.56539e-08 6.16394e-06 -1.01735e-07 1.24598e-07 5.16403e-06 -1.1806e-07 1.53016e-07 
3.54819e-06 -1.06753e-07 1.50311e-07 2.26609e-06 -6.58192e-08 9.82461e-08 1.78988e-06 -2.9937e-08 4.49025e-08 
1.78568e-06 2.74813e-08 -4.41976e-08 2.25663e-06 6.34386e-08 -9.76906e-08 3.53271e-06 1.0465e-07 -1.50193e-07 
5.14668e-06 1.16482e-07 -1.53526e-07 6.14883e-06 1.00608e-07 -1.25547e-07 7.12203e-06 4.04479e-08 -4.70696e-08 
7.11869e-06 -4.02087e-08 4.95911e-08 6.55354e-06 -8.50283e-08 1.063e-07 5.12117e-06 -1.17307e-07 1.57523e-07 
3.47199e-06 -1.06105e-07 1.60118e-07 2.47274e-06 -8.21809e-08 1.55816e-07 3.58912e-06 -7.40544e-08 1.34251e-07 
0 0 0 0 0 0 0 0 0 
0 0 0 0 0 0 0 0 0 
1.4435e-05 1.68071e-07 -5.31174e-07 1.48979e-05 3.18534e-07 -1.44321e-06 1.85862e-05 4.19237e-07 -1.74049e-06 
2.50639e-05 4.62557e-07 -1.75209e-06 3.07292e-05 3.3091e-07 -1.1891e-06 3.29787e-05 1.50532e-07 -5.63807e-07 
3.30401e-05 -1.73827e-07 5.05075e-07 2.92459e-05 -4.17636e-07 1.38009e-06 2.53021e-05 -4.83307e-07 1.69742e-06 
1.89106e-05 -4.37066e-07 1.6714e-06 1.38239e-05 -2.69868e-07 1.09442e-06 1.19318e-05 -1.23129e-07 5.005e-07 
1.19166e-05 1.11218e-07 -4.92682e-07 1.37899e-05 2.57076e-07 -1.08818e-06 1.88552e-05 4.21895e-07 -1.66968e-06 
2.52405e-05 4.65321e-07 -1.70204e-06 2.91924e-05 3.98187e-07 -1.38909e-06 3.30183e-05 1.5335e-07 -5.18695e-07 
3.3e-05 -1.7098e-07 5.50189e-07 3.0774e-05 -3.508e-07 1.17819e-06 2.51252e-05 -4.80439e-07 1.74746e-06 
1.86414e-05 -4.34278e-07 1.74216e-06 1.49402e-05 -3.31865e-07 1.44808e-06 1.44463e-05 -1.84187e-07 5.42669e-07 
0 0 0 0 0 0 0 0 0 
0 0 0 0 0 0 0 0 0 
2.85408e-05 2.55089e-07 -1.16321e-06 3.87554e-05 6.07729e-07 -5.31879e-06 4.51647e-05 7.97644e-07 -6.6147e-06 
5.64633e-05 8.78574e-07 -6.71624e-06 6.63716e-05 6.28604e-07 -4.55391e-06 7.03078e-05 2.87484e-07 -2.15742e-06 
7.04121e-05 -3.25614e-07 1.93302e-06 6.37637e-05 -7.88066e-07 5.2917e-06 5.6853e-05 -9.14036e-07 6.52062e-06 
4.56516e-05 -8.28668e-07 6.43918e-06 3.6736e-05 -5.12481e-07 4.22542e-06 3.34194e-05 -2.33901e-07 1.93382e-06 
3.33931e-05 2.11569e-07 -1.90375e-06 3.66769e-05 4.88707e-07 -4.20138e-06 4.55554e-05 8.01125e-07 -6.43225e-06 
5.6746e-05 8.82392e-07 -6.53728e-06 6.36707e-05 7.54606e-07 -5.3243e-06 7.03743e-05 2.91307e-07 -1.98222e-06 
7.0345e-05 -3.21735e-07 2.10822e-06 6.64498e-05 -6.62446e-07 4.51439e-06 5.65699e-05 -9.10012e-07 6.69955e-06 
4.52606e-05 -8.24915e-07 6.62151e-06 3.88287e-05 -6.32295e-07 5.33788e-06 2.8557e-05 -2.79048e-07 1.18977e-06 
0 0 0 0 0 0 0 0 0 
0 0 0 0 0 0 0 0 0 
4.58704e-05 3.44265e-07 -1.96071e-06 5.84374e-05 8.06986e-07 -8.71027e-06 6.63296e-05 1.05885e-06 -1.08703e-05 
8.02578e-05 1.16703e-06 -1.10522e-05 9.24992e-05 8.36983e-07 -7.49009e-06 9.73678e-05 3.85617e-07 -3.54606e-06 
9.74888e-05 -4.2635e-07 3.18235e-06 8.92488e-05 -1.03947e-06 8.7152e-06 8.06985e-05 -1.20686e-06 1.07479e-05 
6.68662e-05 -1.09454e-06 1.06274e-05 5.58791e-05 -6.76579e-07 6.98069e-06 5.17969e-05 -3.0823e-07 3.19592e-06 
5.17647e-05 2.80974e-07 -3.14634e-06 5.58066e-05 6.47805e-07 -6.94108e-06 6.67475e-05 1.06195e-06 -1.0616e-05 
8.05657e-05 1.17058e-06 -1.0775e-05 8.91329e-05 1.00206e-06 -8.76815e-06 9.74415e-05 3.89219e-07 -3.26199e-06 
9.74144e-05 -4.22678e-07 3.46642e-06 9.25968e-05 -8.74329e-07 7.42599e-06 8.03902e-05 -1.20305e-06 1.1025e-05 
6.64479e-05 -1.0911e-06 1.08815e-05 5.85275e-05 -8.36501e-07 8.74176e-06 4.58906e-05 -3.74533e-07 2.00638e-06 
0 0 0 0 0 0 0 0 0 
0 0 0 0 0 0 0 0 0 
9.20197e-05 5.7069e-07 -3.88711e-06 9.52535e-05 1.17311e-06 -1.45729e-05 0.000105442 1.53949e-06 -1.82077e-05 
0.000123477 1.69935e-06 -1.85185e-05 0.000139401 1.22345e-06 -1.25409e-05 0.000145749 5.69788e-07 -5.929e-06 
0.000145885 -6.07781e-07 5.34667e-06 0.000135101 -1.49774e-06 1.46303e-05 0.000123956 -1.74089e-06 1.80518e-05 
0.00010601 -1.57864e-06 1.78669e-05 9.18292e-05 -9.74293e-07 1.17449e-05 8.65767e-05 -4.42094e-07 5.37853e-06 
8.65354e-05 4.09285e-07 -5.29524e-06 9.17361e-05 9.40077e-07 -1.16784e-05 0.000105857 1.54121e-06 -1.78477e-05 
0.000123781 1.7015e-06 -1.80969e-05 0.000134947 1.45911e-06 -1.47182e-05 0.000145822 5.72153e-07 -5.47861e-06 
0.000145811 -6.05333e-07 5.79706e-06 0.000139531 -1.26096e-06 1.24346e-05 0.000123651 -1.73842e-06 1.84734e-05 
0.000105596 -1.57648e-06 1.82266e-05 9.53697e-05 -1.20784e-06 1.46259e-05 9.20479e-05 -6.11166e-07 3.97872e-06 
0 0 0 0 0 0 0 0 0 
0 0 0 0 0 0 0 0 0 
0.000122662 7.24034e-07 -4.96826e-06 0.000126182 1.48702e-06 -1.8873e-05 0.000138136 1.95161e-06 -2.35858e-05 
0.000159364 2.15611e-06 -2.39909e-05 0.000178176 1.55556e-06 -1.62413e-05 0.000185689 7.28752e-07 -7.6695e-06 
0.000185832 -7.61797e-07 6.94855e-06 0.000173035 -1.88878e-06 1.89864e-05 0.000159852 -2.19676e-06 2.34244e-05 
0.000138704 -1.99164e-06 2.31847e-05 0.000122062 -1.22781e-06 1.5241e-05 0.000115914 -5.55592e-07 6.9796e-06 
0.000115866 5.19756e-07 -6.87148e-06 0.000121953 1.19072e-06 -1.51546e-05 0.000138523 1.95199e-06 -2.31594e-05 
0.000159645 2.15679e-06 -2.34823e-05 0.000172851 1.8513e-06 -1.90998e-05 0.000185756 7.29788e-07 -7.11901e-06 
0.000185765 -7.60672e-07 7.49904e-06 0.000178332 -1.59097e-06 1.6104e-05 0.000159571 -2.19573e-06 2.39328e-05 
0.000138317 -1.99077e-06 2.36107e-05 0.000126317 -1.52443e-06 1.89419e-05 0.000122695 -7.69277e-07 5.08572e-06 
0 0 0 0 0 0 0 0 0 
0 0 0 0 0 0 0 0 0 
0.000160173 9.14123e-07 -6.10448e-06 0.000185751 2.10298e-06 -2.57541e-05 0.00020088 2.76021e-06 -3.22012e-05 
0.000227907 3.05242e-06 -3.27747e-05 0.000252009 2.20739e-06 -2.21859e-05 0.000261664 1.04112e-06 -1.04558e-05 
0.000261815 -1.06287e-06 9.55628e-06 0.000245311 -2.65454e-06 2.60263e-05 0.000228393 -3.08962e-06 3.20851e-05 
0.000201419 -2.80027e-06 3.17278e-05 0.000180339 -1.72363e-06 2.08428e-05 0.000172585 -7.7704e-07 9.54255e-06 
0.000172526 7.36986e-07 -9.3943e-06 0.000180203 1.6826e-06 -2.07238e-05 0.000201189 2.75792e-06 -3.16917e-05 
0.000228125 3.05009e-06 -3.21626e-05 0.000245072 2.62084e-06 -2.618e-05 0.000261715 1.03945e-06 -9.78879e-06 
0.000261764 -1.06446e-06 1.02233e-05 0.000252213 -2.23718e-06 2.19992e-05 0.000228175 -3.09158e-06 3.26971e-05 
0.00020111 -2.80202e-06 3.22369e-05 0.000185922 -2.144e-06 2.58494e-05 0.000160211 -9.64403e-07 6.24929e-06 
0 0 0 0 0 0 0 0 0 
0 0 0 0 0 0 0 0 0 
0.000263744 1.43732e-06 -8.42386e-06 0.000266961 2.94548e-06 -3.28388e-05 0.000285976 3.86739e-06 -4.11001e-05 
0.00032016 4.28105e-06 -4.18977e-05 0.000350868 3.10144e-06 -2.83799e-05 0.000363217 1.46974e-06 -1.33471e-05 
0.000363375 -1.4755e-06 1.23256e-05 0.00034221 -3.7041e-06 3.34187e-05 0.000320628 -4.31279e-06 4.11356e-05 
0.000286453 -3.90648e-06 4.05925e-05 0.000259961 -2.40065e-06 2.6623e-05 0.000250267 -1.07884e-06 1.21817e-05 
0.000250193 1.03439e-06 -1.19913e-05 0.000259793 2.35554e-06 -2.6469e-05 0.000286165 3.86155e-06 -4.05425e-05 
0.000320286 4.2747e-06 -4.12305e-05 0.000341901 3.6763e-06 -3.36121e-05 0.000363245 1.46447e-06 -1.26218e-05 
0.000363348 -1.48068e-06 1.30508e-05 0.000351134 -3.12288e-06 2.81435e-05 0.000320502 -4.31876e-06 4.18026e-05 
0.000286264 -3.91177e-06 4.11495e-05 0.000267173 -2.99024e-06 3.29633e-05 0.000263794 -1.49932e-06 8.62545e-06 
0 0 0 0 0 0 0 0 0 
0 0 0 0 0 0 0 0 0 
0.000335025 1.78766e-06 -9.49572e-06 0.000337328 3.66502e-06 -3.73366e-05 0.000359277 4.81452e-06 -4.67795e-05 
0.00039895 5.33475e-06 -4.77713e-05 0.000434799 3.86948e-06 -3.23909e-05 0.000449262 1.83811e-06 -1.52134e-05 
0.000449426 -1.8303e-06 1.41548e-05 0.000424608 -4.6055e-06 3.82406e-05 0.000399401 -5.36187e-06 4.70004e-05 
0.000359697 -4.85267e-06 4.62795e-05 0.000329114 -2.97812e-06 3.03011e-05 0.000317969 -1.33584e-06 1.38559e-05 
0.000317886 1.28812e-06 -1.36383e-05 0.000328923 2.92994e-06 -3.01237e-05 0.000359366 4.80582e-06 -4.62183e-05 
0.000399002 5.32516e-06 -4.71036e-05 0.000424244 4.58282e-06 -3.84571e-05 0.000449271 1.82997e-06 -1.44907e-05 
0.000449417 -1.83836e-06 1.48774e-05 0.000435113 -3.8837e-06 3.21246e-05 0.000399349 -5.37109e-06 4.76678e-05 
0.000359609 -4.86083e-06 4.684e-05 0.000337569 -3.71261e-06 3.74811e-05 0.000335082 -1.85677e-06 9.72413e-06 
0 0 0 0 0 0 0 0 0 
0 0 0 0 0 0 0 0 0 
0.000423772 2.20736e-06 -1.03831e-05 0.000475399 5.02563e-06 -4.28111e-05 0.00050206 6.61203e-06 -5.37708e-05 
0.000550766 7.34549e-06 -5.5137e-05 0.000595266 5.34085e-06 -3.74867e-05 0.000613331 2.54459e-06 -1.75773e-05 
0.000613505 -2.51149e-06 1.65498e-05 0.00058248 -6.33133e-06 4.44248e-05 0.000551187 -7.36454e-06 5.44284e-05 
0.000502376 -6.64884e-06 5.33395e-05 0.000465218 -4.06854e-06 3.47919e-05 0.000451784 -1.81998e-06 1.58871e-05 
0.000451687 1.76654e-06 -1.56356e-05 0.000464994 4.01495e-06 -3.45836e-05 0.000501977 6.59842e-06 -5.32588e-05 
0.000550693 7.33032e-06 -5.45345e-05 0.000582023 6.3183e-06 -4.46633e-05 0.000613309 2.53155e-06 -1.69307e-05 
0.000613527 -2.52445e-06 1.71964e-05 0.000595663 -5.34142e-06 3.71892e-05 0.00055126 -7.37936e-06 5.50305e-05 
0.000502459 -6.66191e-06 5.38506e-05 0.000475685 -5.0783e-06 4.29835e-05 0.000423834 -2.28469e-06 1.06341e-05 
0 0 0 0 0 0 0 0 0 
0 0 0 0 0 0 0 0 0 
0.000534193 2.70008e-06 -1.09442e-05 0.000595042 6.13413e-06 -4.47821e-05 0.000624867 8.08517e-06 -5.63801e-05 
0.000679824 9.00822e-06 -5.80464e-05 0.000730498 6.56572e-06 -3.95788e-05 0.000751179 3.13396e-06 -1.8543e-05 
0.000751364 -3.08048e-06 1.76069e-05 0.000715846 -7.76632e-06 4.70181e-05 0.000680225 -9.02154e-06 5.74375e-05 
0.000625109 -8.12161e-06 5.60369e-05 0.000583564 -4.95534e-06 3.64212e-05 0.000568642 -2.21235e-06 1.66089e-05 
0.000568537 2.15449e-06 -1.63445e-05 0.000583319 4.89744e-06 -3.61991e-05 0.000624666 8.06816e-06 -5.59423e-05 
0.000679666 8.98907e-06 -5.75354e-05 0.000715323 7.76099e-06 -4.72561e-05 0.000751137 3.11743e-06 -1.79983e-05 
0.000751407 -3.09694e-06 1.81515e-05 0.000730955 -6.55517e-06 3.92774e-05 0.000680383 -9.04036e-06 5.79478e-05 
0.000625309 -8.13809e-06 5.64737e-05 0.000595355 -6.19091e-06 4.49686e-05 0.00053426 -2.78672e-06 1.121e-05 
0 0 0 0 0 0 0 0 0 
0 0 0 0 0 0 0 0 0 
0.000840493 3.87316e-06 -1.03549e-05 0.00082819 8.06685e-06 -4.33388e-05 0.000862323 1.06781e-05 -5.48395e-05 
0.000926196 1.198e-05 -5.69534e-05 0.000986106 8.78104e-06 -3.9088e-05 0.0010108 4.20419e-06 -1.82985e-05 
0.00101101 -4.11535e-06 1.7626e-05 0.000968635 -1.03553e-05 4.66056e-05 0.000926576 -1.19853e-05 5.65864e-05 
0.000862461 -1.07159e-05 5.46884e-05 0.000815011 -6.4965e-06 3.528e-05 0.000798173 -2.89058e-06 1.60436e-05 
0.000798061 2.82532e-06 -1.57864e-05 0.000814745 6.43118e-06 -3.50575e-05 0.000861965 1.06566e-05 -5.45755e-05 
0.000925925 1.19551e-05 -5.66509e-05 0.000968012 1.0363e-05 -4.68063e-05 0.00101073 4.18259e-06 -1.79816e-05 
0.00101108 -4.13689e-06 1.79428e-05 0.000986654 -8.75105e-06 3.88238e-05 0.000926848 -1.201e-05 5.6888e-05 
0.00086282 -1.07369e-05 5.49509e-05 0.000828533 -8.13089e-06 4.35309e-05 0.000840566 -3.98122e-06 1.06078e-05 
0 0 0 0 0 0 0 0 0 
0 0 0 0 0 0 0 0 0 
0.00104812 4.49661e-06 -8.82487e-06 0.00114301 1.01322e-05 -3.42159e-05 0.00118021 1.34989e-05 -4.36267e-05 
0.0012512 1.5305e-05 -4.59131e-05 0.00131917 1.13162e-05 -3.18327e-05 0.00134753 5.43867e-06 -1.48869e-05 
0.00134775 -5.31214e-06 1.46478e-05 0.00129919 -1.33028e-05 3.81517e-05 0.00125157 -1.53051e-05 4.58874e-05 
0.00118027 -1.35412e-05 4.37167e-05 0.00112863 -8.1352e-06 2.78884e-05 0.00111057 -3.60493e-06 1.26296e-05 
0.00111046 3.53232e-06 -1.24257e-05 0.00112836 8.0621e-06 -2.77034e-05 0.00117974 1.34748e-05 -4.35975e-05 
0.00125085 1.52758e-05 -4.58891e-05 0.00129848 1.33238e-05 -3.82551e-05 0.00134743 5.41319e-06 -1.48741e-05 
0.00134785 -5.33758e-06 1.46603e-05 0.0013198 -1.12655e-05 3.16794e-05 0.00125193 -1.5334e-05 4.59101e-05 
0.00118074 -1.35648e-05 4.37439e-05 0.00114336 -1.02041e-05 3.43822e-05 0.0010482 -4.61555e-06 9.04018e-06 
0 0 0 0 0 0 0 0 0 
0 0 0 0 0 0 0 0 0 
0.00130035 5.06771e-06 -6.30469e-06 0.0014083 1.13631e-05 -2.30047e-05 0.00144661 1.52149e-05 -2.95709e-05 
0.00152066 1.73984e-05 -3.15614e-05 0.00159254 1.29581e-05 -2.21104e-05 0.00162279 6.2463e-06 -1.03079e-05 
0.00162303 -6.098e-06 1.04505e-05 0.0015713 -1.51993e-05 2.67196e-05 0.00152102 -1.73975e-05 3.18005e-05 
0.00144663 -1.52617e-05 2.98269e-05 0.00139354 -9.10498e-06 1.88006e-05 0.00137515 -4.02295e-06 8.47617e-06 
0.00137504 3.94655e-06 -8.33794e-06 0.00139327 9.02764e-06 -1.8667e-05 0.0014461 1.51909e-05 -2.97163e-05 
0.00152027 1.73678e-05 -3.17467e-05 0.00157056 1.52273e-05 -2.67219e-05 0.00162269 6.21961e-06 -1.05269e-05 
0.00162313 -6.12465e-06 1.02312e-05 0.00159321 -1.28956e-05 2.20783e-05 0.00152141 -1.74278e-05 3.16136e-05 
0.00144714 -1.52853e-05 2.96793e-05 0.00140865 -1.14395e-05 2.31308e-05 0.00130043 -5.19599e-06 6.45796e-06 
0 0 0 0 0 0 0 0 0 
0 0 0 0 0 0 0 0 0 
0.00196012 5.69836e-06 1.32341e-06 0.0019028 1.24807e-05 6.75638e-07 0.00194129 1.68219e-05 5.30099e-07 
0.00201672 1.94646e-05 -3.94375e-08 0.00209113 1.46519e-05 -2.85073e-07 0.00212276 7.09194e-06 1.61214e-08 
0.00212301 -6.92818e-06 7.95927e-07 0.00206901 -1.71358e-05 1.02612e-06 0.00201707 -1.94658e-05 6.89676e-07 
0.00194129 -1.68744e-05 -5.0551e-08 0.00188807 -9.97485e-06 -3.64333e-07 0.00186983 -4.39124e-06 -2.19687e-07 
0.00186972 4.31311e-06 2.2216e-07 0.00188782 9.89525e-06 3.85958e-07 0.00194077 1.68005e-05 1.25245e-07 
0.00201632 1.94352e-05 -5.45618e-07 0.00206825 1.71688e-05 -8.38262e-07 0.00212265 7.0666e-06 -5.65683e-07 
0.00212311 -6.95351e-06 2.13642e-07 0.00209181 -1.45803e-05 4.89928e-07 0.00201747 -1.9495e-05 1.81517e-07 
0.00194181 -1.68954e-05 -4.58179e-07 0.00190314 -1.25596e-05 -6.4248e-07 0.00196019 -5.83374e-06 -1.35445e-06 
0 0 0 0 0 0 0 0 0 
0 0 0 0 0 0 0 0 0 
0.00237401 5.5946e-06 5.71499e-06 0.0023018 1.24428e-05 1.88741e-05 0.00233956 1.68051e-05 2.38757e-05 
0.00241374 1.95196e-05 2.48271e-05 0.00248716 1.47477e-05 1.71963e-05 0.00251844 7.14703e-06 8.31704e-06 
0.00251867 -6.99163e-06 -7.05009e-06 0.00246529 -1.72337e-05 -1.95401e-05 0.00241407 -1.95228e-05 -2.39188e-05 
0.00233955 -1.68578e-05 -2.32719e-05 0.00228736 -9.93762e-06 -1.50685e-05 0.00226949 -4.37018e-06 -6.86016e-06 
0.00226938 4.29465e-06 6.76174e-06 0.00228711 9.86075e-06 1.50047e-05 0.00233904 1.67865e-05 2.33122e-05 
0.00241335 1.94932e-05 2.41182e-05 0.00246457 1.72654e-05 1.98583e-05 0.00251833 7.12497e-06 7.50225e-06 
0.00251877 -7.01368e-06 -7.86544e-06 0.00248781 -1.46788e-05 -1.68248e-05 0.00241446 -1.9549e-05 -2.46299e-05 
0.00234006 -1.6876e-05 -2.38385e-05 0.00230213 -1.2519e-05 -1.89137e-05 0.00237408 -5.72487e-06 -5.84837e-06 
0 0 0 0 0 0 0 0 0 
0 0 0 0 0 0 0 0 0 
0.00284362 5.17625e-06 9.74999e-06 0.00300403 1.10369e-05 4.38373e-05 0.00303981 1.48515e-05 5.59593e-05 
0.0031093 1.71435e-05 5.91231e-05 0.00317726 1.28799e-05 4.13879e-05 0.003206 6.22215e-06 1.98044e-05 
0.0032062 -6.10762e-06 -1.79729e-05 0.00315707 -1.50854e-05 -4.80168e-05 0.0031096 -1.71487e-05 -5.78843e-05 
0.00303982 -1.48972e-05 -5.51928e-05 0.00299032 -8.82509e-06 -3.52285e-05 0.00297323 -3.88784e-06 -1.59553e-05 
0.00297313 3.82196e-06 1.57244e-05 0.00299008 8.75883e-06 3.50526e-05 0.00303935 1.48375e-05 5.51863e-05 
0.00310895 1.71242e-05 5.81475e-05 0.00315643 1.51088e-05 4.84886e-05 0.00320591 6.20754e-06 1.8686e-05 
0.00320629 -6.1222e-06 -1.9092e-05 0.00317782 -1.28281e-05 -4.08201e-05 0.00310995 -1.71678e-05 -5.88625e-05 
0.00304028 -1.49108e-05 -5.59691e-05 0.00300435 -1.11019e-05 -4.39725e-05 0.00284369 -5.29552e-06 -9.97406e-06 
0 0 0 0 0 0 0 0 0 
0 0 0 0 0 0 0 0 0 
0.00336484 4.50377e-06 1.28821e-05 0.00353544 9.40355e-06 5.55388e-05 0.00356931 1.2563e-05 7.08664e-05 
0.00363406 1.43169e-05 7.4794e-05 0.00369624 1.06281e-05 5.227e-05 0.00372224 5.10483e-06 2.49338e-05 
0.00372241 -5.02623e-06 -2.28644e-05 0.00367788 -1.25e-05 -6.08831e-05 0.00363436 -1.43235e-05 -7.33872e-05 
0.00356937 -1.26013e-05 -6.99976e-05 0.00352242 -7.53805e-06 -4.46927e-05 0.00350601 -3.3328e-06 -2.0243e-05 
0.00350591 3.27589e-06 1.9953e-05 0.00352218 7.4816e-06 4.4468e-05 0.00356892 1.2552e-05 6.99727e-05 
0.00363377 1.43031e-05 7.36749e-05 0.00367732 1.25152e-05 6.14079e-05 0.00372216 5.09552e-06 2.3659e-05 
0.00372248 -5.03551e-06 -2.41399e-05 0.00369673 -1.05925e-05 -5.16372e-05 0.00363465 -1.43372e-05 -7.45091e-05 
0.00356976 -1.26118e-05 -7.08948e-05 0.00353575 -9.45826e-06 -5.57145e-05 0.00336491 -4.60785e-06 -1.31735e-05 
0 0 0 0 0 0 0 0 0 
0 0 0 0 0 0 0 0 0 
0.00453417 2.86371e-06 1.53624e-05 0.00440976 6.60845e-06 6.28828e-05 0.00443974 8.6956e-06 7.98616e-05 
0.00449542 9.64337e-06 8.3571e-05 0.00454709 6.98169e-06 5.79383e-05 0.00456823 3.31438e-06 2.75231e-05 
0.00456837 -3.28147e-06 -2.53234e-05 0.00453204 -8.28353e-06 -6.77008e-05 0.00449575 -9.65318e-06 -8.20179e-05 
0.00443993 -8.72463e-06 -7.88611e-05 0.00439819 -5.32928e-06 -5.06593e-05 0.00438329 -2.37488e-06 -2.29947e-05 
0.0043832 2.33216e-06 2.26693e-05 0.00439797 5.2878e-06 5.04077e-05 0.00443953 8.68996e-06 7.88282e-05 
0.00449528 9.6371e-06 8.23087e-05 0.00453161 8.28686e-06 6.82241e-05 0.00456819 3.3114e-06 2.60997e-05 
0.00456841 -3.28442e-06 -2.67476e-05 0.00454747 -6.96802e-06 -5.73125e-05 0.0044959 -9.65931e-06 -8.32833e-05 
0.00444013 -8.72998e-06 -7.98985e-05 0.00441004 -6.64801e-06 -6.30796e-05 0.00453423 -2.93409e-06 -1.57024e-05 
0 0 0 0 0 0 0 0 0 
0 0 0 0 0 0 0 0 0 
0.00516614 2.11776e-06 1.48422e-05 0.00519632 9.69173e-06 6.55733e-05 0.00522355 1.20313e-05 7.90821e-05 
0.00525474 1.27113e-05 8.10824e-05 0.00530975 7.88443e-06 4.83128e-05 0.00532349 2.83908e-06 1.78421e-05 
0.00532358 -2.80834e-06 -1.56854e-05 0.00528558 -1.13411e-05 -6.87171e-05 0.00525513 -1.27317e-05 -7.96156e-05 
0.00522393 -1.20683e-05 -7.7971e-05 0.00517673 -6.27862e-06 -4.27429e-05 0.00516625 -2.17874e-06 -1.50007e-05 
0.00516619 2.12306e-06 1.46761e-05 0.00517656 6.22498e-06 4.24766e-05 0.00522358 1.20297e-05 7.79827e-05 
0.00525475 1.27086e-05 7.98257e-05 0.00528523 1.13385e-05 6.91336e-05 0.00532349 2.84035e-06 1.63796e-05 
0.00532358 -2.80706e-06 -1.71484e-05 0.00531 -7.86604e-06 -4.77222e-05 0.00525512 -1.27343e-05 -8.08756e-05 
0.0052239 -1.20698e-05 -7.90745e-05 0.00519659 -9.74002e-06 -6.57295e-05 0.0051662 -2.1733e-06 -1.51706e-05 
0 0 0 0 0 0 0 0 0 
0 0 0 0 0 0 0 0 0 
0.00581953 1.50496e-06 1.35292e-05 0.00584591 6.80761e-06 5.945e-05 0.00586936 8.3659e-06 7.14227e-05 
0.00589588 8.74018e-06 7.29002e-05 0.0059418 5.31731e-06 4.31182e-05 0.00595312 1.90184e-06 1.59307e-05 
0.00595321 -1.89372e-06 -1.38917e-05 0.00592183 -7.72419e-06 -6.14099e-05 0.00589632 -8.76198e-06 -7.14899e-05 
0.00586984 -8.39872e-06 -7.03547e-05 0.00582905 -4.44861e-06 -3.8858e-05 0.00581987 -1.55124e-06 -1.36614e-05 
0.00581982 1.50797e-06 1.33632e-05 0.0058289 4.40716e-06 3.86146e-05 0.00586955 8.36852e-06 7.03657e-05 
0.00589601 8.7421e-06 7.16763e-05 0.00592155 7.7168e-06 6.17734e-05 0.00595314 1.90592e-06 1.44856e-05 
0.0059532 -1.88962e-06 -1.53373e-05 0.005942 -5.31264e-06 -4.26095e-05 0.00589619 -8.75999e-06 -7.27171e-05 
0.00586966 -8.39601e-06 -7.14155e-05 0.00584614 -6.84482e-06 -5.95915e-05 0.00581958 -1.54815e-06 -1.38315e-05 
0 0 0 0 0 0 0 0 0 
0 0 0 0 0 0 0 0 0 
0.00716793 6.93985e-07 9.88445e-06 0.00718642 3.08951e-06 4.30993e-05 0.00720254 3.73758e-06 5.14543e-05 
0.00722043 3.83821e-06 5.21564e-05 0.00725063 2.26732e-06 3.05389e-05 0.00725794 8.01281e-07 1.13396e-05 
0.00725803 -8.10875e-07 -9.62632e-06 0.00723776 -3.34862e-06 -4.34247e-05 0.00722092 -3.85787e-06 -5.09531e-05 
0.00720311 -3.7613e-06 -5.05447e-05 0.00717494 -2.04919e-06 -2.82649e-05 0.00716847 -7.21008e-07 -9.96833e-06 
0.00716843 6.95295e-07 9.74157e-06 0.00717483 2.02453e-06 2.80808e-05 0.0072029 3.7423e-06 5.05515e-05 
0.00722071 3.84317e-06 5.10847e-05 0.00723757 3.33849e-06 4.36769e-05 0.00725798 8.07231e-07 1.00284e-05 
0.00725799 -8.04922e-07 -1.0938e-05 0.00725076 -2.27338e-06 -3.01916e-05 0.00722064 -3.8529e-06 -5.20278e-05 
0.00720275 -3.75656e-06 -5.14511e-05 0.00718659 -3.1119e-06 -4.32064e-05 0.00716796 -7.19682e-07 -1.01155e-05 
0 0 0 0 0 0 0 0 0 
0 0 0 0 0 0 0 0 0 
0.00785516 4.55382e-07 8.05611e-06 0.0078701 2.01859e-06 3.50413e-05 0.00788303 2.42847e-06 4.17405e-05 
0.0078973 2.47861e-06 4.22099e-05 0.00792119 1.44851e-06 2.46479e-05 0.00792695 5.08919e-07 9.19426e-06 
0.00792703 -5.20585e-07 -7.65745e-06 0.00791111 -2.155e-06 -3.49409e-05 0.00789779 -2.49602e-06 -4.11252e-05 
0.0078836 -2.44818e-06 -4.09186e-05 0.00786096 -1.34768e-06 -2.29893e-05 0.00785572 -4.76235e-07 -8.11835e-06 
0.00785569 4.56352e-07 7.9278e-06 0.00786087 1.3285e-06 2.28348e-05 0.00788343 2.43291e-06 4.09229e-05 
0.00789761 2.48351e-06 4.12315e-05 0.00791096 2.14526e-06 3.51445e-05 0.00792699 5.14728e-07 7.97992e-06 
0.00792698 -5.14775e-07 -8.87226e-06 0.00792129 -1.45584e-06 -2.4369e-05 0.00789747 -2.49111e-06 -4.21065e-05 
0.0078832 -2.44373e-06 -4.17397e-05 0.00787024 -2.03619e-06 -3.51319e-05 0.00785519 -4.75262e-07 -8.25097e-06 
0 0 0 0 0 0 0 0 0 
0 0 0 0 0 0 0 0 0 
0.00854782 2.93607e-07 6.41264e-06 0.00855966 1.29917e-06 2.78457e-05 0.00856986 1.55627e-06 3.31136e-05 
0.00858105 1.58078e-06 3.34286e-05 0.00859969 9.15731e-07 1.94945e-05 0.00860417 3.19672e-07 7.31585e-06 
0.00860424 -3.31579e-07 -5.95125e-06 0.00859191 -1.37228e-06 -2.75066e-05 0.00858152 -1.59589e-06 -3.24606e-05 
0.0085704 -1.57261e-06 -3.23772e-05 0.00855255 -8.7296e-07 -1.82597e-05 0.00854839 -3.09907e-07 -6.45568e-06 
0.00854837 2.94354e-07 6.29845e-06 0.00855247 8.57914e-07 1.81322e-05 0.00857027 1.56019e-06 3.23794e-05 
0.00858138 1.58524e-06 3.2545e-05 0.00859179 1.36337e-06 2.76686e-05 0.00860422 3.25008e-07 6.2069e-06 
0.0086042 -3.26244e-07 -7.06064e-06 0.00859977 -9.23174e-07 -1.92731e-05 0.00858119 -1.59142e-06 -3.3347e-05 
0.00856999 -1.56869e-06 -3.31148e-05 0.00855977 -1.31314e-06 -2.79214e-05 0.00854785 -3.09163e-07 -6.57416e-06 
0 0 0 0 0 0 0 0 0 
0 0 0 0 0 0 0 0 0 
0.00994466 1.16887e-07 3.84884e-06 0.00995175 5.1969e-07 1.66866e-05 0.00995781 6.19091e-07 1.98045e-05 
0.00996444 6.24681e-07 1.99562e-05 0.00997539 3.56818e-07 1.16497e-05 0.00997801 1.22423e-07 4.44619e-06 
0.00997808 -1.32688e-07 -3.39375e-06 0.00997092 -5.4399e-07 -1.61988e-05 0.00996484 -6.35798e-07 -1.92011e-05 
0.00995829 -6.30449e-07 -1.92241e-05 0.00994767 -3.54447e-07 -1.09028e-05 0.00994518 -1.27323e-07 -3.86234e-06 
0.00994517 1.17358e-07 3.75983e-06 0.00994762 3.44681e-07 1.08194e-05 0.0099582 6.2188e-07 1.92237e-05 
0.00996475 6.27976e-07 1.92524e-05 0.00997085 5.36829e-07 1.62982e-05 0.00997806 1.26471e-07 3.55038e-06 
0.00997803 -1.28641e-07 -4.28997e-06 0.00997544 -3.63409e-07 -1.15144e-05 0.00996453 -6.32508e-07 -1.99076e-05 
0.0099579 -6.27665e-07 -1.98081e-05 0.00995182 -5.28976e-07 -1.67379e-05 0.00994468 -1.2686e-07 -3.95545e-06 
0 0 0 0 0 0 0 0 0 
0 0 0 0 0 0 0 0 0 
0.0106476 7.23172e-08 2.92025e-06 0.010653 3.24077e-07 1.266e-05 0.0106576 3.85482e-07 1.50188e-05 
0.0106626 3.88093e-07 1.51295e-05 0.0106709 2.20235e-07 8.8513e-06 0.0106729 7.4573e-08 3.41601e-06 
0.0106729 -8.3766e-08 -2.49926e-06 0.0106675 -3.39826e-07 -1.21808e-05 0.010663 -3.97643e-07 -1.44678e-05 
0.010658 -3.95073e-07 -1.45073e-05 0.01065 -2.23327e-07 -8.24533e-06 0.0106481 -8.09104e-08 -2.92352e-06 
0.0106481 7.2695e-08 2.84213e-06 0.0106499 2.15173e-07 8.17911e-06 0.010658 3.87782e-07 1.45063e-05 
0.0106629 3.90837e-07 1.45072e-05 0.0106675 3.33373e-07 1.22578e-05 0.0106729 7.79844e-08 2.62056e-06 
0.0106729 -8.03552e-08 -3.2951e-06 0.0106709 -2.26327e-07 -8.74665e-06 0.0106627 -3.94904e-07 -1.50927e-05 
0.0106577 -3.92778e-07 -1.50229e-05 0.010653 -3.31914e-07 -1.27015e-05 0.0106476 -8.05402e-08 -3.00559e-06 
0 0 0 0 0 0 0 0 0 
0 0 0 0 0 0 0 0 0 
0.0113532 4.40826e-08 2.1921e-06 0.0113573 2.00449e-07 9.50603e-06 0.0113607 2.38216e-07 1.12753e-05 
0.0113645 2.39398e-07 1.13592e-05 0.0113707 1.34917e-07 6.66709e-06 0.0113722 4.48039e-08 2.60715e-06 
0.0113722 -5.30443e-08 -1.81183e-06 0.0113682 -2.11599e-07 -9.05832e-06 0.0113648 -2.4772e-07 -1.07815e-05 
0.0113611 -2.46476e-07 -1.08263e-05 0.0113551 -1.40076e-07 -6.16472e-06 0.0113537 -5.13759e-08 -2.18778e-06 
0.0113537 4.43865e-08 2.12378e-06 0.0113551 1.33142e-07 6.11264e-06 0.0113611 2.40097e-07 1.0825e-05 
0.0113648 2.41657e-07 1.08116e-05 0.0113682 2.05775e-07 9.11757e-06 0.0113722 4.76382e-08 1.90524e-06 
0.0113722 -5.02106e-08 -2.51412e-06 0.0113707 -1.4051e-07 -6.58665e-06 0.0113645 -2.45466e-07 -1.13314e-05 
0.0113608 -2.446e-07 -1.12795e-05 0.0113573 -2.07175e-07 -9.53944e-06 0.0113532 -5.10792e-08 -2.25987e-06 
0 0 0 0 0 0 0 0 0 
0 0 0 0 0 0 0 0 0 
0.0120616 2.63932e-08 1.63088e-06 0.0120646 1.22973e-07 7.07661e-06 0.0120671 1.46121e-07 8.39438e-06 
0.0120699 1.46631e-07 8.45994e-06 0.0120746 8.19411e-08 4.98693e-06 0.0120757 2.64209e-08 1.98063e-06 
0.0120757 -3.3813e-08 -1.29287e-06 0.0120728 -1.31555e-07 -6.67076e-06 0.0120702 -1.5396e-07 -7.95731e-06 
0.0120675 -1.53341e-07 -8.00164e-06 0.012063 -8.76809e-08 -4.56428e-06 0.012062 -3.27296e-08 -1.62116e-06 
0.012062 2.66375e-08 1.57133e-06 0.012063 8.1629e-08 4.52364e-06 0.0120674 1.4765e-07 8.00039e-06 
0.0120702 1.48475e-07 7.9803e-06 0.0120727 1.26227e-07 6.71613e-06 0.0120757 2.87507e-08 1.36448e-06 
0.0120757 -3.14838e-08 -1.90937e-06 0.0120746 -8.7121e-08 -4.92548e-06 0.01207 -1.5212e-07 -8.43923e-06 
0.0120672 -1.51817e-07 -8.39842e-06 0.0120646 -1.2889e-07 -7.10337e-06 0.0120616 -3.24916e-08 -1.68429e-06 
0 0 0 0 0 0 0 0 0 
0 0 0 0 0 0 0 0 0 
0.0134865 8.66703e-09 8.83981e-07 0.0134881 4.49424e-08 3.84344e-06 0.0134895 5.35899e-08 4.5626e-06 
0.0134911 5.36684e-08 4.6056e-06 0.0134936 2.91165e-08 2.7482e-06 0.0134942 8.29271e-09 1.13472e-06 
0.0134942 -1.42897e-08 -6.24466e-07 0.0134926 -5.10764e-08 -3.52579e-06 0.0134913 -5.951e-08 -4.2284e-06 
0.0134898 -5.93072e-08 -4.26496e-06 0.0134874 -3.45877e-08 -2.44122e-06 0.0134868 -1.37181e-08 -8.68654e-07 
0.0134868 8.82434e-09 8.39148e-07 0.0134874 2.95936e-08 2.41713e-06 0.0134898 5.45854e-08 4.26403e-06 
0.0134913 5.48751e-08 4.24166e-06 0.0134926 4.63893e-08 3.55212e-06 0.0134942 9.83117e-09 6.65975e-07 
0.0134942 -1.27516e-08 -1.09352e-06 0.0134936 -3.37425e-08 -2.71284e-06 0.0134911 -5.83061e-08 -4.59435e-06 
0.0134896 -5.83151e-08 -4.56599e-06 0.0134882 -4.988e-08 -3.86028e-06 0.0134865 -1.35652e-08 -9.16644e-07 
0 0 0 0 0 0 0 0 0 
0 0 0 0 0 0 0 0 0 
0.0142034 4.50149e-09 6.45541e-07 0.0142046 2.66225e-08 2.81055e-06 0.0142056 3.18647e-08 3.33854e-06 
0.0142067 3.18737e-08 3.37423e-06 0.0142086 1.68451e-08 2.02984e-06 0.014209 4.12968e-09 8.58251e-07 
0.014209 -9.64699e-09 -4.20166e-07 0.0142079 -3.20826e-08 -2.53338e-06 0.0142069 -3.72355e-08 -3.04869e-06 
0.0142059 -3.71119e-08 -3.08055e-06 0.0142041 -2.19714e-08 -1.76657e-06 0.0142037 -9.18737e-09 -6.29278e-07 
0.0142037 4.62734e-09 6.06806e-07 0.0142041 1.73623e-08 1.74829e-06 0.0142058 3.26636e-08 3.07981e-06 
0.0142069 3.28435e-08 3.05872e-06 0.0142079 2.76727e-08 2.55339e-06 0.014209 5.36935e-09 4.51556e-07 
0.014209 -8.40768e-09 -8.27152e-07 0.0142086 -2.12156e-08 -2.00317e-06 0.0142067 -3.6268e-08 -3.36608e-06 
0.0142056 -3.63157e-08 -3.34157e-06 0.0142046 -3.11955e-08 -2.8238e-06 0.0142034 -9.06511e-09 -6.70955e-07 
0 0 0 0 0 0 0 0 0 
0 0 0 0 0 0 0 0 0 
0.0149235 1.97568e-09 4.69445e-07 0.0149243 1.54123e-08 2.04716e-06 0.0149251 1.85819e-08 2.43389e-06 
0.0149259 1.85624e-08 2.46366e-06 0.0149272 9.3826e-09 1.49637e-06 0.0149276 1.64001e-09 6.50098e-07 
0.0149276 -6.74465e-09 -2.7456e-07 0.0149268 -2.03922e-08 -1.80686e-06 0.0149261 -2.35237e-08 -2.18324e-06 
0.0149253 -2.34422e-08 -2.21076e-06 0.014924 -1.41855e-08 -1.2705e-06 0.0149237 -6.36905e-09 -4.52989e-07 
0.0149237 2.07614e-09 4.36063e-07 0.014924 9.86392e-09 1.25668e-06 0.0149253 1.92211e-08 2.21028e-06 
0.014926 1.93391e-08 2.19089e-06 0.0149268 1.61996e-08 1.82197e-06 0.0149276 2.63465e-09 2.98273e-07 
0.0149276 -5.7503e-09 -6.26654e-07 0.0149272 -1.35497e-08 -1.4764e-06 0.0149259 -2.27488e-08 -2.45775e-06 
0.0149251 -2.28052e-08 -2.4365e-06 0.0149243 -1.9711e-08 -2.05761e-06 0.0149235 -6.27144e-09 -4.89099e-07 
0 0 0 0 0 0 0 0 0 
0 0 0 0 0 0 0 0 0 